# LAMMPS data file written by OVITO Basic 3.5.4
864 atoms
1 atom types
0.0 34.7786 xlo xhi
0.0 34.7786 ylo yhi
0.0 34.7786 zlo zhi

Masses

1 4.0026 #He

Atoms  # atomic

1 1 12.955544 -12.224933 16.153079
2 1 4.229269 -0.569719 13.656306
3 1 -8.795452 1.751942 -7.3932
4 1 -1.788036 5.907422 -6.044923
5 1 -9.292535 -8.464816 -2.872496
6 1 -5.168241 8.375204 -6.231003
7 1 10.022335 1.027297 -14.186172
8 1 11.398302 -7.164427 -4.886865
9 1 9.862639 -13.329969 1.265525
10 1 16.013618 -13.591761 -6.969712
11 1 -13.057747 16.137931 -15.864175
12 1 -0.075558 9.656224 6.206139
13 1 -16.219757 13.834431 -2.358087
14 1 11.420772 -9.542584 7.219872
15 1 9.997898 -9.032324 -11.530208
16 1 -2.544432 8.411097 -5.137135
17 1 -13.283591 -10.710659 6.802363
18 1 8.218827 8.110272 -5.911448
19 1 -13.677275 1.058986 12.419853
20 1 -8.081258 14.872148 9.690931
21 1 -10.706064 -3.269493 -12.903995
22 1 4.020868 -0.258786 0.921015
23 1 -10.80427 -2.826106 -9.367253
24 1 14.276338 -2.20365 7.621002
25 1 -13.416925 -8.228823 -2.581416
26 1 -9.88366 14.921595 7.581571
27 1 1.290289 -11.757588 3.579733
28 1 -7.243761 -1.862521 -7.804629
29 1 11.930489 -4.932617 5.872744
30 1 10.918538 -10.091424 -4.471348
31 1 3.114886 13.904104 -6.893203
32 1 -13.132862 12.278747 7.021433
33 1 -7.744386 16.141535 5.201751
34 1 -15.310459 8.286515 9.840214
35 1 -7.093505 -0.23645 -12.859757
36 1 5.089737 3.945247 -5.241865
37 1 -12.766668 10.136882 10.36155
38 1 -0.079505 -11.033526 -16.138642
39 1 -10.108864 -5.391254 -11.20188
40 1 13.409978 0.49413 6.727385
41 1 9.088998 9.937283 -16.138237
42 1 2.638839 0.379848 -1.995991
43 1 13.314944 -2.644232 -10.323475
44 1 2.916262 0.267774 6.168671
45 1 -2.255664 -3.504889 -15.104555
46 1 7.104076 6.840809 1.30892
47 1 -3.56453 6.136943 2.735491
48 1 -2.279959 -8.441004 -3.963375
49 1 2.344297 13.44027 -9.702951
50 1 -16.142393 -2.310431 14.506391
51 1 12.646915 -10.140838 -15.712283
52 1 -16.138438 15.471859 -7.252879
53 1 -4.029314 13.762065 -5.991895
54 1 6.916851 1.444272 14.339837
55 1 -14.255105 -13.708149 -5.724917
56 1 -1.4558 8.277412 3.486493
57 1 0.959166 -8.407092 3.079137
58 1 -12.034462 -13.801492 -3.828702
59 1 -14.393647 -13.941615 -12.556585
60 1 -6.66273 -9.989569 -14.601073
61 1 -7.406467 -14.314644 12.390815
62 1 -11.688727 -0.781252 9.517653
63 1 7.539194 11.061999 10.115773
64 1 -11.783132 -8.063938 1.559564
65 1 -0.199921 12.100485 4.258296
66 1 -3.238004 -16.073873 -0.147448
67 1 16.145242 14.219108 -5.502952
68 1 6.118961 2.259112 -0.444363
69 1 -6.346503 15.786208 7.711617
70 1 -0.655591 -1.903741 -2.844526
71 1 -14.744093 -0.03343 3.103553
72 1 9.750297 -4.325774 13.29413
73 1 9.53643 -4.160232 3.682
74 1 2.643089 -3.04379 3.097596
75 1 3.444105 -4.773029 -5.334771
76 1 -12.297343 -6.883083 10.40503
77 1 -13.368963 9.218447 -15.956238
78 1 -6.204291 12.860796 8.309797
79 1 12.956299 11.600639 6.882505
80 1 12.827757 -13.890057 5.955166
81 1 -12.695621 9.310436 -3.242179
82 1 15.856869 -0.57865 0.815127
83 1 1.36271 -4.255773 12.479857
84 1 -2.912972 9.366008 -14.296796
85 1 3.568659 -9.148916 -0.888035
86 1 16.140005 16.027 0.060383
87 1 16.139286 -13.262921 6.747895
88 1 15.323697 1.164723 14.191219
89 1 -11.689842 -1.913634 2.458932
90 1 -9.400954 -4.139102 -15.165984
91 1 -4.668402 -9.774412 -12.54758
92 1 0.942015 7.363245 11.096657
93 1 -15.109824 14.778984 14.497547
94 1 -11.461514 2.368602 11.485821
95 1 -9.210521 -3.102547 0.556855
96 1 -14.019549 1.602866 -6.624631
97 1 -0.206277 -4.063142 5.283629
98 1 2.119036 9.8084 -13.219665
99 1 16.137392 9.784895 9.392449
100 1 3.045559 -12.885682 -5.001757
101 1 -8.192578 -15.302961 3.589849
102 1 -15.615532 -1.880516 -4.725349
103 1 8.203915 -0.177775 -4.067164
104 1 -7.922711 -0.134988 -1.240527
105 1 -7.136741 -7.666619 0.148276
106 1 -11.243187 -13.41273 -14.114123
107 1 -13.061141 13.406455 9.78073
108 1 -5.628598 7.517747 6.178265
109 1 -13.971452 -16.139101 -2.662136
110 1 0.748089 -1.132014 -7.956018
111 1 -5.648781 14.662784 14.490818
112 1 -0.805394 10.553524 -5.410303
113 1 13.498752 -13.424912 13.747068
114 1 -0.163493 14.983199 -9.707435
115 1 7.147758 9.831901 -0.277756
116 1 -8.234721 11.111752 -12.771832
117 1 7.298379 -4.489326 5.297469
118 1 -11.074412 -5.638238 -1.495227
119 1 -5.694285 11.189236 -7.325106
120 1 8.750121 -6.377149 -3.041347
121 1 -13.838379 11.935146 3.904234
122 1 -2.479343 -15.365713 3.957244
123 1 -6.640521 -3.94078 -3.377148
124 1 -2.113701 -10.989556 -12.118691
125 1 -16.138714 13.421723 -11.686199
126 1 4.40722 2.735774 13.69975
127 1 13.513133 -5.389804 -13.658537
128 1 -3.307478 13.863364 -11.603335
129 1 -13.250032 -7.312262 -15.745131
130 1 1.496504 -7.17305 7.433646
131 1 5.421612 0.995817 -5.956529
132 1 8.173778 -4.598262 -6.342109
133 1 2.776077 11.69292 -5.30764
134 1 6.707807 9.284792 5.028315
135 1 -15.055907 5.210787 -5.28746
136 1 -10.955799 -15.192339 15.809079
137 1 8.657413 1.521344 -10.080336
138 1 9.954209 8.393589 14.999689
139 1 -4.541513 -6.49564 7.422347
140 1 -5.760601 -3.0176 -14.420815
141 1 -1.748601 12.80888 -3.682042
142 1 -6.622229 -7.709935 -3.0377
143 1 1.319424 -5.623196 -10.991676
144 1 -7.41084 15.496076 0.168654
145 1 11.810868 6.851389 -10.715362
146 1 3.950176 11.622663 -15.710963
147 1 -16.137644 12.620685 -7.915182
148 1 8.236825 -7.235587 4.781649
149 1 -10.216624 10.810897 -7.778367
150 1 -4.651626 4.194548 8.551923
151 1 -8.304677 -6.545216 2.442575
152 1 0.1086 -3.803057 -5.071533
153 1 -11.696546 0.499234 -5.418656
154 1 2.052528 -1.473855 9.979008
155 1 -5.984141 3.037231 2.450777
156 1 -10.605196 3.971664 15.368117
157 1 9.157412 7.622693 6.11427
158 1 -9.431969 8.706719 -3.043879
159 1 -4.424654 16.137633 -9.294956
160 1 6.574198 -7.879362 -3.851036
161 1 7.566336 2.427989 -4.875946
162 1 -4.168026 6.3331 14.415545
163 1 -2.598466 -7.988777 -12.310273
164 1 16.153448 14.718107 5.058609
165 1 -13.734526 -8.113934 6.016002
166 1 -0.525645 8.585158 -7.516306
167 1 -0.458882 -1.190724 11.370708
168 1 -8.857904 -12.576328 2.22169
169 1 -16.153063 -8.214614 -2.854541
170 1 9.842895 -10.092887 2.771758
171 1 10.743861 -7.031559 13.540985
172 1 -13.18116 9.594984 -6.040152
173 1 -0.45784 -9.822149 7.336098
174 1 -4.434963 10.008145 -3.738241
175 1 8.604979 -9.851178 5.583679
176 1 -5.721939 3.540567 -0.833805
177 1 9.087831 2.636328 -2.271365
178 1 -6.746065 -0.756461 -5.04696
179 1 7.275112 7.696746 -3.028313
180 1 -1.115641 0.810537 -14.312533
181 1 -4.533102 -7.44788 3.499028
182 1 -12.982124 12.279954 -6.982157
183 1 5.874947 -5.200175 -10.853497
184 1 5.782878 -4.617537 3.00562
185 1 -5.826313 1.703133 12.920792
186 1 -11.489238 13.288277 -9.059949
187 1 -2.660879 11.398109 3.131948
188 1 9.696898 4.201129 -8.992479
189 1 1.200829 -9.029253 9.984719
190 1 5.508322 15.756659 -7.773145
191 1 -3.400933 -3.631679 -7.686552
192 1 -1.620617 -10.950938 -6.311724
193 1 10.875939 13.692814 -16.138728
194 1 4.371378 5.714485 5.456714
195 1 -8.732226 13.313558 1.472101
196 1 -16.14011 -1.974352 -13.494754
197 1 3.062474 -6.897951 13.993222
198 1 8.775784 12.958761 8.522166
199 1 -6.087629 4.538342 6.231943
200 1 -7.690199 13.408212 -2.230124
201 1 -14.766739 -13.219932 14.490937
202 1 -15.042087 -15.489534 -7.789247
203 1 -9.35227 6.984577 15.786747
204 1 5.342021 6.479977 -14.105886
205 1 -13.508618 -4.244328 -13.316073
206 1 10.424284 8.667174 -12.274589
207 1 12.667065 14.810856 -1.271896
208 1 -0.073897 -9.058568 -12.465704
209 1 -6.80355 -12.769285 -14.766414
210 1 3.251704 8.718603 -9.468705
211 1 -10.196884 11.469168 -3.174188
212 1 -0.045145 -12.305258 -8.179567
213 1 0.82831 -11.600337 -13.002556
214 1 7.615061 4.912569 -3.694015
215 1 0.745803 -6.473813 -5.226087
216 1 6.78219 13.318565 -7.774753
217 1 9.723086 11.584201 -1.165553
218 1 1.401534 4.541391 10.369972
219 1 9.411055 -12.359542 10.603325
220 1 -1.890762 -4.257311 2.042288
221 1 15.077438 1.999324 11.299778
222 1 -9.849474 4.887717 -9.051801
223 1 9.220282 -7.503652 1.756206
224 1 12.029134 13.652146 -13.631009
225 1 13.148772 2.646991 -3.093517
226 1 15.590382 10.138646 6.251455
227 1 15.070198 5.198948 -3.772171
228 1 8.243775 -10.721683 -13.543226
229 1 -12.55348 -3.830118 9.704928
230 1 7.548745 16.060418 -3.933474
231 1 -14.383566 -8.573949 15.217734
232 1 -15.519576 14.306999 -14.220413
233 1 -10.020196 -3.159672 8.259746
234 1 2.182862 12.158733 -0.981457
235 1 11.210071 -5.28418 -15.450791
236 1 -8.693739 -6.827173 -5.875285
237 1 -2.08195 9.104667 -11.610287
238 1 11.61106 10.686171 -8.444778
239 1 -5.788837 -14.598481 -5.351133
240 1 -8.93039 8.290341 -6.607957
241 1 -6.175562 -11.410239 3.095686
242 1 15.231159 0.479892 8.993588
243 1 -14.013367 -1.218344 -11.927774
244 1 4.282933 -1.568216 -5.866955
245 1 2.703414 8.889379 3.190497
246 1 -0.126008 -13.863048 -5.830627
247 1 -4.604027 -5.718331 -2.118422
248 1 6.031034 -14.257329 -6.829489
249 1 2.320069 -4.261502 15.930182
250 1 -0.015664 -5.171436 -0.367177
251 1 9.591676 -2.923895 -3.399855
252 1 -11.809688 -10.206176 9.821662
253 1 4.413323 2.13531 -12.778933
254 1 6.737278 4.206395 -13.411607
255 1 13.826754 -12.043338 -8.015974
256 1 6.565072 8.20939 -12.262688
257 1 0.892978 -12.17305 -3.445779
258 1 -13.90953 14.70732 -8.923605
259 1 -5.634805 -4.872797 -6.280134
260 1 5.881458 10.068999 -3.009325
261 1 3.209207 -6.152028 4.119269
262 1 -3.784893 -1.323271 -13.159969
263 1 -0.395827 6.659179 5.700278
264 1 -12.601327 -0.71956 15.947618
265 1 -13.273694 -15.555253 12.876535
266 1 12.482291 4.535504 -8.257003
267 1 -3.369383 5.598523 -8.824863
268 1 11.723899 5.044863 -16.138746
269 1 4.107147 12.394257 -11.905731
270 1 2.971599 9.913784 -3.118102
271 1 13.408279 7.376356 -13.126116
272 1 10.823911 -0.499923 7.908402
273 1 -13.548565 12.337549 -10.861176
274 1 -1.403945 -12.851455 -14.019628
275 1 3.969546 -12.481058 15.363907
276 1 0.451672 9.960315 -2.016676
277 1 -7.997201 10.359937 2.204738
278 1 -1.093439 -12.657315 6.162181
279 1 -0.197503 -2.408743 -0.065482
280 1 -2.516441 8.695831 8.912243
281 1 3.712371 -10.872249 -3.02631
282 1 -5.173138 13.341961 0.274326
283 1 -15.249451 -10.310749 11.679418
284 1 2.999763 -2.744471 -7.999204
285 1 -12.191591 9.581366 2.955969
286 1 -10.18965 11.280936 3.990389
287 1 -8.663682 6.127939 6.716349
288 1 -0.472585 -6.335217 -14.558209
289 1 15.770597 -13.762756 -13.116234
290 1 -0.421916 -11.866103 0.346207
291 1 -16.210903 9.671333 0.224713
292 1 14.614664 10.963983 2.078641
293 1 0.001818 -7.095977 14.169659
294 1 11.586065 -15.291584 -8.926858
295 1 4.285162 11.321863 14.673095
296 1 -13.569947 9.856882 0.646087
297 1 -13.930355 -12.809643 11.337303
298 1 12.880839 11.978863 0.187437
299 1 16.151603 -1.112212 3.630006
300 1 10.631402 -3.38306 -6.125707
301 1 -12.376057 -4.086941 -4.504787
302 1 4.104569 -9.302097 -9.035309
303 1 -12.420757 -4.639727 -16.047541
304 1 15.633145 13.849963 13.483623
305 1 -5.073247 -11.662877 0.349253
306 1 -2.189007 -3.189892 13.667662
307 1 -6.42828 0.203989 8.989452
308 1 3.304446 -3.089659 -14.314668
309 1 6.032336 -3.219086 -8.143937
310 1 0.222488 -0.343594 6.555904
311 1 12.332344 -11.378054 2.141253
312 1 -1.531864 5.770236 8.465718
313 1 -9.78844 7.467112 9.29406
314 1 1.923321 -12.276153 -10.415467
315 1 -6.429837 -1.322482 5.399
316 1 9.935431 -9.694998 12.846674
317 1 7.706667 15.868739 -10.124902
318 1 1.797706 16.238608 -6.508665
319 1 -2.570441 11.917487 -8.74124
320 1 -6.103289 -3.156239 10.405675
321 1 -1.804701 -7.510144 3.101957
322 1 -14.302163 -12.814865 5.126244
323 1 1.381085 -15.068575 9.720637
324 1 -11.5275 11.615827 0.271076
325 1 6.152025 2.134356 -8.627464
326 1 -4.15081 -13.696901 6.715235
327 1 3.551616 -6.853032 -12.308917
328 1 15.016352 -7.51113 13.572262
329 1 -9.621966 -9.827349 14.905846
330 1 -10.519512 9.566554 -10.861169
331 1 -11.23172 7.112264 13.398356
332 1 9.902374 4.675919 9.050785
333 1 -16.077118 -9.900583 -6.951189
334 1 -4.247087 -11.923622 -6.860848
335 1 7.457618 -15.384571 4.631239
336 1 -10.832714 -8.434417 -7.768897
337 1 -2.464775 -14.728271 -11.150587
338 1 4.464227 -11.53635 -7.470094
339 1 -14.645291 -0.937594 8.2572
340 1 -1.794769 -8.89527 -0.474092
341 1 13.444354 14.32315 11.461993
342 1 5.727859 -14.883972 -12.550956
343 1 14.655726 3.829478 7.96883
344 1 14.95041 -1.516436 11.612395
345 1 14.985989 -14.070141 0.093242
346 1 -12.21533 13.421358 -4.062395
347 1 -4.792312 0.846779 6.236299
348 1 16.139328 9.399114 12.849425
349 1 9.471131 -9.112421 9.96594
350 1 -1.993206 16.139442 -8.010658
351 1 -12.917834 4.262376 -9.836441
352 1 -6.398256 11.848547 -16.160436
353 1 0.919905 -8.771516 0.046079
354 1 8.309841 -6.064321 -9.851657
355 1 -13.829022 15.041584 -2.714088
356 1 -10.562353 -5.720105 4.158289
357 1 -1.750796 -4.579605 8.378991
358 1 -13.886116 15.505611 1.531419
359 1 -12.932505 2.15376 3.484184
360 1 -5.843085 13.511063 -8.955317
361 1 -13.54242 -2.724424 -6.761998
362 1 -14.822559 13.548113 -4.682653
363 1 4.349756 8.333683 0.246624
364 1 0.106734 9.267406 14.185844
365 1 -0.974746 -9.247205 -8.842545
366 1 13.042127 4.021429 12.578413
367 1 -1.945824 14.329716 10.736063
368 1 9.255483 7.688851 -0.360521
369 1 -6.244002 4.709542 13.63005
370 1 6.920665 -10.284102 -7.941642
371 1 4.908181 -4.366488 -0.372671
372 1 -1.030741 2.492246 10.652479
373 1 -3.709762 14.992637 3.33921
374 1 12.179302 -7.835061 -0.10922
375 1 12.458868 -9.086629 14.184673
376 1 -10.774142 -16.073019 1.885122
377 1 15.56972 10.594082 -4.925837
378 1 -16.135473 -11.890028 -9.606355
379 1 16.134538 -8.549368 -9.009406
380 1 14.850664 -12.293251 3.44748
381 1 -13.853055 -11.721262 -7.833232
382 1 -16.041298 1.117555 -13.43631
383 1 -8.214566 10.756709 -5.242799
384 1 7.010876 -14.365974 11.01187
385 1 -8.897837 2.972061 -14.64261
386 1 -8.142503 -1.211199 -16.07245
387 1 -16.066685 -7.284615 -9.264479
388 1 14.721758 5.692005 -11.074981
389 1 -13.245146 -13.861291 -9.694565
390 1 11.113821 -12.20981 4.588332
391 1 -16.138724 8.485108 -8.273747
392 1 -8.577771 3.511184 1.449642
393 1 -6.280612 4.875878 -14.637568
394 1 -9.614578 -16.141792 -5.309073
395 1 14.57007 -1.332694 -14.14374
396 1 -9.032471 12.59392 -10.562137
397 1 14.660948 15.53393 16.137131
398 1 -2.253253 6.451033 11.630297
399 1 12.766103 5.319954 4.255198
400 1 -7.989709 3.183005 11.932906
401 1 4.095914 -15.237781 3.826236
402 1 -9.240066 -4.43562 -4.128194
403 1 -3.329244 -1.073231 11.678094
404 1 -6.803353 -4.580471 6.281618
405 1 -6.260672 5.779696 -8.367923
406 1 -10.484462 14.291462 -1.045149
407 1 -11.327299 1.194254 -15.167786
408 1 9.949035 -9.773641 -7.02571
409 1 -10.490994 12.044752 8.53112
410 1 -5.008095 13.398744 5.55567
411 1 -13.727112 -1.445054 13.546258
412 1 -1.611299 4.214543 3.367495
413 1 -8.733006 0.302399 10.681695
414 1 -11.112124 -8.427393 -14.119325
415 1 15.180679 -9.235224 -4.807855
416 1 2.77556 7.318988 -4.4929
417 1 -2.020422 13.556422 -0.911778
418 1 4.886371 5.911646 -3.028177
419 1 -9.086446 -6.993049 -15.543594
420 1 -0.826179 -13.777172 15.898155
421 1 -11.32473 -12.07334 4.546587
422 1 6.700537 11.567576 6.651449
423 1 15.411596 6.932613 11.873559
424 1 8.731784 9.052898 2.734271
425 1 12.682962 1.016558 -13.482132
426 1 -4.699505 -3.428464 -10.814302
427 1 -16.138831 -3.627648 8.938333
428 1 8.271424 -0.853232 6.947931
429 1 15.799691 -8.898766 -0.018186
430 1 1.022299 14.481035 -4.625518
431 1 14.375633 -11.245234 -1.734707
432 1 4.486995 -0.387236 -8.344077
433 1 2.343744 5.38998 -1.60046
434 1 15.0448 11.679975 11.771323
435 1 15.966859 1.966303 5.427938
436 1 13.586326 14.019784 5.745147
437 1 -0.733874 3.638489 -8.446867
438 1 16.123573 -9.979861 6.33346
439 1 -12.742402 12.046802 12.812717
440 1 13.069952 -15.408362 15.681899
441 1 12.595661 -6.642514 11.268329
442 1 -1.100088 1.540123 -6.481684
443 1 11.395613 4.821296 -2.897463
444 1 -15.16859 -3.589034 -1.830699
445 1 -6.449435 -6.554781 -8.575855
446 1 4.346058 6.318517 2.446751
447 1 15.176037 -4.884443 -8.235937
448 1 0.066059 7.0348 -3.493779
449 1 -8.855516 5.23865 -11.592729
450 1 -4.450379 -12.673572 -3.262039
451 1 8.392637 14.23472 -14.180302
452 1 4.439524 5.954614 11.981436
453 1 3.359972 -15.540719 -10.216728
454 1 -0.404308 14.523301 13.532306
455 1 16.130252 6.533201 -14.939244
456 1 1.08298 1.59161 -8.16049
457 1 -2.838836 -3.760622 -3.524528
458 1 3.500062 -0.24732 -16.139679
459 1 -6.707183 -14.586029 8.010532
460 1 -13.017744 -10.512496 2.902183
461 1 7.505131 12.441654 4.130109
462 1 -4.251207 13.683322 12.092475
463 1 2.038443 11.839621 12.652965
464 1 15.713401 12.280243 8.304206
465 1 -11.296044 -2.640474 -2.003745
466 1 -4.296609 8.299606 -10.175813
467 1 6.746335 3.626491 4.05825
468 1 -10.180568 -13.610467 -1.782761
469 1 6.894251 -9.54079 2.546274
470 1 8.919943 11.318646 -7.897735
471 1 11.652511 6.435113 0.135211
472 1 5.063484 11.586829 8.861032
473 1 16.143862 -3.7451 8.927212
474 1 -4.068119 -5.271355 10.08921
475 1 11.352959 -13.132371 -3.870602
476 1 -0.784252 -11.038265 11.495304
477 1 11.401398 7.61309 9.890509
478 1 -1.30665 -5.132186 11.046146
479 1 -16.139074 8.281122 -2.536467
480 1 12.143975 13.668394 -8.371455
481 1 14.595793 -1.130126 -3.230213
482 1 7.033256 8.387941 11.421971
483 1 -11.691132 11.312059 -13.292291
484 1 -8.516368 13.426131 -15.107791
485 1 1.786322 9.127788 8.470116
486 1 12.585337 -11.721283 8.927174
487 1 -1.481452 1.103234 15.106629
488 1 -12.894987 16.137804 -6.035671
489 1 12.353902 -5.90441 -10.258348
490 1 16.13932 6.31761 -1.473325
491 1 3.202123 -13.56839 -14.106209
492 1 13.616524 -8.47939 -2.363875
493 1 -5.809706 -10.011558 16.141109
494 1 -12.187365 -13.68992 0.677159
495 1 -7.57293 -16.139307 -3.46675
496 1 10.567904 3.652761 5.701388
497 1 9.575223 8.806998 -8.808551
498 1 13.945588 -8.992582 2.17258
499 1 -12.009644 -15.244934 -7.273164
500 1 -6.071373 9.88178 8.90572
501 1 4.780751 3.823703 1.380807
502 1 -5.879025 -12.359342 14.6871
503 1 -11.512315 3.212746 -6.804844
504 1 7.868085 12.057098 1.360587
505 1 16.172988 -13.460694 13.253654
506 1 7.10231 15.784349 0.223884
507 1 -7.349332 -4.850859 -11.061698
508 1 6.776527 -8.941706 -10.74019
509 1 -2.053583 -5.818896 -5.437103
510 1 -10.127077 14.148226 13.538944
511 1 3.314893 9.086338 12.080233
512 1 -2.603773 -8.412945 6.350368
513 1 12.985125 10.75967 -3.494578
514 1 13.502552 -7.5688 4.860498
515 1 11.821829 9.08868 -14.623593
516 1 7.655628 9.043418 8.03593
517 1 7.941513 -8.835506 -1.66108
518 1 -2.68174 -15.872529 7.858022
519 1 0.773274 4.790237 -6.041236
520 1 -11.741872 11.216744 16.068379
521 1 -11.80231 12.297136 -16.139028
522 1 -2.439874 -13.86353 -7.630879
523 1 7.521578 10.667157 14.349289
524 1 -0.272802 15.167009 6.906764
525 1 -10.7557 0.757919 -2.112152
526 1 6.529394 -11.899215 14.327928
527 1 1.729107 12.350826 8.418851
528 1 11.658005 12.07554 12.286902
529 1 4.092907 -10.291496 9.243118
530 1 4.470048 -10.315241 -12.038287
531 1 -7.390649 8.505266 4.249153
532 1 -16.07438 -0.062632 -10.417674
533 1 4.361845 -7.443617 8.171179
534 1 1.710733 12.750886 2.337223
535 1 12.443133 8.449997 13.093549
536 1 -10.25719 -15.042203 -10.753709
537 1 13.64362 -1.462871 4.701724
538 1 6.555805 7.650675 -8.437486
539 1 7.198374 2.147402 9.638396
540 1 6.87843 -15.549931 13.491348
541 1 -10.607372 7.247243 -13.094117
542 1 -5.703453 10.292554 6.210159
543 1 14.709275 -11.510573 12.00838
544 1 2.897217 -4.266831 8.698559
545 1 -6.328012 0.044944 1.403663
546 1 -15.865195 -15.34017 4.209484
547 1 -12.735804 14.621862 16.035627
548 1 7.010866 -3.66887 8.162264
549 1 15.311446 8.671969 -11.175631
550 1 -5.632664 0.464053 -8.153354
551 1 -14.71979 -5.388136 11.340075
552 1 -7.963301 -7.440031 -12.304415
553 1 -1.232576 -14.416202 1.342881
554 1 -6.384977 9.129394 -13.322527
555 1 -2.466654 -0.33834 7.158977
556 1 8.284219 -16.13821 -14.907803
557 1 -10.163893 11.553436 11.601906
558 1 2.371773 14.163349 -13.318009
559 1 13.03517 9.316002 -5.885458
560 1 6.278789 -7.234763 0.308346
561 1 -15.203737 11.770721 11.617467
562 1 -8.351095 -14.795615 -7.370701
563 1 -15.356534 -5.2738 5.659031
564 1 6.408873 -10.830729 11.447472
565 1 -10.694268 -10.659137 1.155822
566 1 1.881275 12.778553 15.714205
567 1 -11.650968 14.159147 5.617536
568 1 -12.409951 -4.083526 12.989636
569 1 -15.495157 -5.723151 14.0721
570 1 0.393927 3.858005 7.41719
571 1 1.686641 -13.901731 6.046501
572 1 -14.592496 16.138791 9.122011
573 1 -15.616319 10.153706 -11.232872
574 1 -5.153071 -0.477771 -10.926046
575 1 16.138958 14.036645 10.578536
576 1 -8.444552 2.632017 8.121153
577 1 15.416433 1.571982 -11.98267
578 1 -2.578419 -4.195869 -12.387403
579 1 9.714678 13.69458 3.074347
580 1 -8.423506 6.352121 12.451174
581 1 12.373013 -3.050276 2.678012
582 1 -8.036064 13.5704 4.275045
583 1 -6.526439 -10.215556 10.323755
584 1 -13.413682 9.281961 -9.20433
585 1 4.923675 0.958216 3.219956
586 1 -1.717921 11.781239 -13.703821
587 1 3.103392 3.869661 -15.941183
588 1 6.805518 13.666899 11.462374
589 1 -1.190426 11.307225 12.16199
590 1 2.066314 3.399486 1.144689
591 1 12.427104 4.240207 -12.713836
592 1 2.822637 5.33784 -10.811047
593 1 5.545195 0.207973 -3.299923
594 1 2.668551 -12.799262 -1.357264
595 1 9.162457 11.977464 -4.727155
596 1 -0.238555 -15.0396 11.943487
597 1 -1.006732 16.136479 -13.504818
598 1 -10.911099 -12.576796 7.754113
599 1 -4.543766 -13.536529 3.846743
600 1 -3.925436 -15.139509 -14.609002
601 1 13.977718 -5.955465 7.569476
602 1 14.067013 -5.636375 -2.228085
603 1 -10.368937 16.100989 1.194359
604 1 8.008969 -3.874946 0.428946
605 1 -15.093117 5.411957 -8.607974
606 1 7.597041 -7.286453 -6.428121
607 1 10.325202 12.86628 -10.81367
608 1 -0.953577 6.533738 -10.3408
609 1 15.903871 6.952967 -8.836517
610 1 16.13933 4.485952 -13.09995
611 1 -14.520616 16.13306 -11.232341
612 1 -6.805957 -9.678062 -9.761495
613 1 4.270952 -13.398124 10.643073
614 1 15.141207 12.567341 -1.63221
615 1 -10.145112 -1.93509 11.49188
616 1 -16.138176 -5.377542 2.311913
617 1 2.320216 -11.445801 12.01683
618 1 15.840474 11.759674 -15.977028
619 1 -3.707165 -6.646965 -7.476841
620 1 -7.995703 15.631699 -9.068295
621 1 2.028621 13.346065 5.872789
622 1 11.233593 -3.212055 8.766504
623 1 0.265111 -15.687728 -3.077986
624 1 -3.101161 -11.152525 -9.27608
625 1 4.430955 13.108831 3.527381
626 1 8.358483 -5.879829 11.321609
627 1 -3.909569 -3.031369 15.807421
628 1 11.734074 9.551063 -1.031696
629 1 6.084729 -11.413222 -0.608601
630 1 5.029167 -14.711643 -2.314703
631 1 3.796104 -3.399376 -10.707698
632 1 3.792597 -8.675771 2.199207
633 1 6.571851 -3.683068 -15.925375
634 1 2.921299 5.400707 7.77648
635 1 3.039089 0.963214 -10.253957
636 1 -16.137617 6.686674 -16.129834
637 1 3.311828 3.130692 6.010688
638 1 -8.609998 -11.2513 -1.91128
639 1 14.958208 -6.122486 2.251988
640 1 10.449583 -1.904607 -0.085169
641 1 5.679092 -15.975428 -4.711228
642 1 1.256927 0.834681 2.576611
643 1 -13.991139 -2.407212 -15.853823
644 1 -1.711829 -10.87639 3.931534
645 1 -3.863683 -5.202157 5.027579
646 1 4.988696 8.064401 14.007881
647 1 1.714181 2.788392 -3.18211
648 1 -4.810886 -10.194571 -4.788387
649 1 4.669806 15.399254 12.711953
650 1 -11.283186 0.648952 -12.222808
651 1 -10.762898 3.914519 3.199984
652 1 1.349846 10.543304 -10.256636
653 1 -13.466608 9.139804 -13.038083
654 1 9.298143 3.369009 -12.800392
655 1 -16.085671 13.982743 3.039278
656 1 12.222948 10.810237 9.751404
657 1 -7.099404 4.646406 9.773173
658 1 -8.396368 7.048034 -16.050543
659 1 -15.616058 10.862476 -5.862215
660 1 4.588588 -10.851727 4.1215
661 1 0.980865 16.00923 -15.838255
662 1 -8.838395 -11.413876 -7.094577
663 1 10.985589 -12.568149 -11.208714
664 1 -15.808222 11.111837 -2.087413
665 1 6.039359 -5.247416 14.24796
666 1 -10.780716 -8.762571 -11.26737
667 1 3.071473 -7.10036 10.57655
668 1 12.312509 -15.589288 0.11662
669 1 -3.792188 -7.142034 0.753507
670 1 2.304365 -9.777818 -5.155201
671 1 -3.914267 -16.138774 -7.071624
672 1 2.756288 -2.112872 -3.327849
673 1 -7.479096 8.520953 10.845277
674 1 -6.874169 -14.272027 0.497596
675 1 -11.73358 -5.1933 1.562978
676 1 -8.806921 -9.043927 8.339704
677 1 -16.193979 -0.771657 -15.969738
678 1 -8.254339 15.997434 -3.773693
679 1 2.821655 2.747747 -6.234045
680 1 0.276835 -16.138605 4.344326
681 1 -14.773138 -12.498416 1.064984
682 1 -7.618572 -9.621387 -4.815997
683 1 -2.190673 5.521271 -13.417609
684 1 -8.930973 -14.348759 9.926398
685 1 -4.331143 -9.059889 11.598586
686 1 11.788922 -12.848007 -0.66575
687 1 13.627849 -16.059677 -3.234712
688 1 -6.933792 -8.748461 13.604523
689 1 12.135793 15.31971 3.349414
690 1 -15.895606 13.565414 8.801386
691 1 4.375354 8.003161 9.542665
692 1 -4.43285 11.999101 -13.29543
693 1 8.109306 0.128479 -0.788167
694 1 11.991177 -4.397041 -3.736995
695 1 11.55334 -5.640867 1.893688
696 1 5.523967 11.781706 -5.295871
697 1 -10.410292 -0.041792 6.82294
698 1 0.845591 -3.300466 -15.634711
699 1 -5.331855 6.742433 10.420388
700 1 -11.752865 16.139916 3.713441
701 1 9.861256 4.711949 2.607121
702 1 -9.494474 2.660005 -10.802714
703 1 8.402024 0.495253 -7.348045
704 1 -16.136834 -4.611892 -15.624627
705 1 -16.143415 0.445051 11.397992
706 1 -10.491059 -8.728249 5.687846
707 1 -0.65474 16.064363 1.993403
708 1 -4.31287 -9.340879 -1.98472
709 1 0.848289 -5.0141 -7.554512
710 1 5.180561 11.616416 0.975434
711 1 8.593162 5.036577 -1.022349
712 1 2.2574 -11.512412 7.284511
713 1 -5.223962 -14.551099 -9.543579
714 1 -7.313723 14.16365 -12.028146
715 1 0.762795 7.919209 0.663292
716 1 4.78704 14.327456 -4.423813
717 1 8.671839 -16.024211 2.153869
718 1 3.362594 14.866547 1.044099
719 1 -2.144685 -8.171609 9.137137
720 1 -3.184093 0.624655 -4.472093
721 1 8.199061 -14.837689 -1.247661
722 1 6.384039 -12.005748 -10.832365
723 1 1.935541 7.211054 14.873855
724 1 3.35538 -13.148055 1.71266
725 1 11.297254 1.369058 4.006461
726 1 16.139354 -10.646004 9.828982
727 1 15.980404 7.323835 6.425676
728 1 -14.106445 0.984653 -15.642537
729 1 5.79616 6.527862 16.139773
730 1 7.110246 -2.036832 4.051272
731 1 -11.121524 -15.212498 4.564441
732 1 -6.454993 -3.969176 -0.500219
733 1 16.138632 5.775817 14.565442
734 1 9.501762 9.817659 11.749409
735 1 -2.87158 10.125405 6.214272
736 1 -3.069865 14.810957 -14.968134
737 1 -4.469447 3.556896 -6.643239
738 1 4.400799 11.7083 -7.871069
739 1 -14.876067 12.349881 15.808672
740 1 -16.137771 -11.608838 -3.434356
741 1 -1.927917 2.056654 5.093295
742 1 -4.465774 9.734283 1.441424
743 1 -8.829293 8.75674 -0.359456
744 1 -14.106759 15.55734 6.4559
745 1 13.854942 12.955707 15.613395
746 1 2.791565 6.91525 -16.117764
747 1 12.198625 -0.805632 13.207018
748 1 7.368951 1.36006 -12.754519
749 1 6.248867 6.854295 7.12395
750 1 14.057081 -8.159919 9.499461
751 1 4.0295 0.532896 16.149686
752 1 -12.330958 -0.094682 0.328018
753 1 8.481885 -1.547446 -11.938677
754 1 -9.956089 9.486637 -15.444862
755 1 13.807961 13.640074 -10.818934
756 1 -10.220519 -0.085512 -8.952714
757 1 14.440349 10.102164 -8.443965
758 1 -7.081309 -2.158231 13.557772
759 1 -13.801524 7.045648 1.259952
760 1 0.448747 7.211306 -13.287185
761 1 -3.212676 6.328415 -0.07344
762 1 -12.040962 -12.540546 15.017584
763 1 -2.288208 2.694248 8.144316
764 1 14.767737 12.561024 -13.334138
765 1 13.748694 8.161443 3.705083
766 1 -9.527119 -12.962922 -4.693642
767 1 -12.325029 -4.416128 5.930214
768 1 -2.894922 0.334128 3.122046
769 1 6.737527 3.555015 7.321336
770 1 -1.951994 3.948741 12.985466
771 1 9.889464 14.744102 -2.941261
772 1 6.812842 -8.495556 9.371607
773 1 4.849348 -13.253753 5.64909
774 1 -2.937864 13.611221 7.458031
775 1 8.66304 -14.203055 -12.555147
776 1 -12.426522 16.204092 -0.68287
777 1 4.036511 1.187527 8.512085
778 1 15.140871 -7.033002 -11.337699
779 1 -4.490559 4.282056 -12.555806
780 1 -8.080645 7.767756 -9.470832
781 1 8.725592 -13.386003 13.289978
782 1 14.686197 -14.780341 9.038576
783 1 -0.816582 -3.547086 -10.19919
784 1 11.467152 0.340068 -1.746943
785 1 6.362076 3.79919 11.671816
786 1 -16.137349 -8.923489 -16.138617
787 1 10.381837 1.887091 10.775941
788 1 -7.791101 13.196988 -6.777056
789 1 -13.189205 8.187423 5.494247
790 1 8.559283 -0.098875 12.335252
791 1 5.574308 -0.912267 -14.461215
792 1 8.439423 5.996929 13.731826
793 1 13.757762 13.058654 -6.202956
794 1 -14.423722 6.502461 -13.621128
795 1 7.340817 -7.938347 -13.771255
796 1 -2.594401 -4.034862 -0.733505
797 1 -15.586071 -3.503021 -10.086098
798 1 4.320511 8.991643 -6.937197
799 1 -9.403271 0.784433 0.909079
800 1 -0.21542 13.714429 -12.449171
801 1 -5.856099 14.004316 -14.577815
802 1 4.882576 0.995553 11.327991
803 1 9.707421 14.06689 13.482516
804 1 11.906923 16.139384 -4.184589
805 1 -4.356028 -1.960904 0.815802
806 1 1.052103 0.578737 12.916421
807 1 12.608433 15.261602 14.085476
808 1 -13.309535 -9.056294 -9.761822
809 1 -5.266417 -1.38911 -1.940186
810 1 14.630593 -4.134576 13.822322
811 1 -5.633721 11.650782 15.482079
812 1 1.220967 5.687897 2.933153
813 1 -2.44205 -9.684043 -15.731418
814 1 14.844449 13.837399 1.940192
815 1 13.523285 -9.382523 -10.763877
816 1 2.199927 -13.91674 -8.020839
817 1 -15.308994 6.522086 12.553042
818 1 -2.157272 9.503472 -0.546033
819 1 -6.048647 6.477885 -11.978561
820 1 0.992027 -10.522871 15.952125
821 1 3.956848 -3.107163 11.871156
822 1 -0.987855 3.373599 -3.671463
823 1 -15.902791 -9.057285 7.752358
824 1 -4.112873 -8.489011 14.605665
825 1 3.710211 -16.138085 12.399185
826 1 1.137803 6.494247 -8.169379
827 1 -16.157178 14.635899 0.267655
828 1 3.530699 -6.510404 -8.482364
829 1 0.276665 12.802247 -6.977276
830 1 7.977311 -12.376456 3.545342
831 1 11.993564 1.733368 16.141547
832 1 2.73856 -15.713532 -5.847198
833 1 16.140334 5.313984 9.751576
834 1 13.594351 16.138007 1.093391
835 1 14.001188 -6.143412 15.760058
836 1 7.547764 6.224724 9.478729
837 1 6.290921 -15.914258 -9.24929
838 1 -4.340499 15.100973 -3.383252
839 1 -1.351319 2.037661 1.586655
840 1 15.175359 -15.950269 4.66427
841 1 -2.802823 4.010194 -15.644646
842 1 11.695635 2.257379 -6.62857
843 1 12.572987 3.493931 9.920537
844 1 -13.069041 6.966606 -10.813215
845 1 -2.616742 3.139225 -10.388025
846 1 12.692241 -12.618637 -14.054349
847 1 7.219264 -0.540572 1.734387